<?xml version="1.0"?>
<!-- opendihu 1.1, built Nov  5 2020, C++ 201402, GCC 7.5.0 current time: 2020/11/12 22:35:09, hostname: DESKTOP-PAREPFM, n ranks: 1-->
<VTKFile type="RectilinearGrid" version="1.0" byte_order="LittleEndian">
	<RectilinearGrid WholeExtent="0 20 0 20 0 0"> 
		<Piece Extent="0 20 0 20 0 0"> 
			<PointData Scalars="solution" >
				<DataArray Name="solution" type="Float32" NumberOfComponents="1" format="ascii" >
					0 0.149042 0.294755 0.433884 0.56332 0.680173 0.781831 0.866025 0.930874 0.974928 0.997204 0.997204 0.974928 0.930874 0.866025 0.781831 0.680173 0.56332 0.433884 0.294755 0.149042 0.250303 0.286787 0.372997 0.469645 0.56722 0.658637 0.740024 0.808394 0.861627 0.898145 0.91696 0.91757 0.900038 0.864923 0.813391 0.747177 0.668917 0.582164 0.493708 0.412792 0.378171 0.366627 0.390364 0.43909 0.505837 0.577346 0.64737 0.711328 0.766022 0.80918 0.839172 0.855003 0.856186 0.842819 0.815515 0.775539 0.724817 0.666229 0.604065 0.54431 0.499932 0.477739 0.44776 0.459561 0.491814 0.537334 0.58944 0.642362 0.692023 0.735299 0.769976 0.794454 0.807765 0.809448 0.799616 0.778897 0.748563 0.710518 0.667603 0.623631 0.584141 0.555612 0.545072 0.500675 0.508765 0.530482 0.56276 0.600866 0.64084 0.679223 0.713308 0.741064 0.761011 0.772243 0.774333 0.767396 0.752031 0.729422 0.701323 0.670185 0.639237 0.612241 0.593764 0.586772 0.537967 0.543411 0.558893 0.582241 0.6106 0.641014 0.670817 0.697744 0.720033 0.736368 0.74593 0.748333 0.743679 0.732508 0.71587 0.695273 0.672756 0.650779 0.632126 0.619519 0.615044 0.563824 0.567827 0.579237 0.596729 0.61832 0.641891 0.665368 0.686913 0.705034 0.718589 0.726854 0.729481 0.726558 0.718551 0.706358 0.691244 0.674834 0.659023 0.645776 0.636962 0.633832 0.581603 0.584656 0.593458 0.607066 0.62408 0.642898 0.661895 0.679568 0.694654 0.706168 0.71347 0.716249 0.714574 0.708844 0.699819 0.688547 0.67634 0.664655 0.654959 0.648545 0.646296 0.593134 0.595616 0.60279 0.613956 0.628034 0.643755 0.659788 0.674868 0.687904 0.698028 0.704668 0.707542 0.706702 0.702494 0.69557 0.686819 0.677326 0.668267 0.660781 0.655853 0.654127 0.599637 0.601804 0.608087 0.617899 0.630337 0.644311 0.658657 0.67225 0.684103 0.693421 0.699676 0.702601 0.702239 0.698901 0.693173 0.685847 0.677877 0.670274 0.664006 0.659887 0.658448 0.601731 0.603799 0.609798 0.61918 0.631092 0.644503 0.658303 0.671413 0.68288 0.691936 0.698064 0.701005 0.700798 0.697742 0.692401 0.685535 0.678052 0.670915 0.665032 0.66117 0.659821 0.599637 0.601804 0.608087 0.617899 0.630337 0.644311 0.658657 0.67225 0.684103 0.693421 0.699676 0.702601 0.702239 0.698901 0.693173 0.685847 0.677877 0.670274 0.664006 0.659887 0.658448 0.593134 0.595616 0.60279 0.613956 0.628034 0.643755 0.659788 0.674868 0.687904 0.698028 0.704668 0.707542 0.706702 0.702494 0.69557 0.686819 0.677326 0.668267 0.660781 0.655853 0.654127 0.581603 0.584656 0.593458 0.607066 0.62408 0.642898 0.661895 0.679568 0.694654 0.706168 0.71347 0.716249 0.714574 0.708844 0.699819 0.688547 0.67634 0.664655 0.654959 0.648545 0.646296 0.563824 0.567827 0.579237 0.596729 0.61832 0.641891 0.665368 0.686913 0.705034 0.718589 0.726854 0.729481 0.726558 0.718551 0.706358 0.691244 0.674834 0.659023 0.645776 0.636962 0.633832 0.537967 0.543411 0.558893 0.582241 0.6106 0.641014 0.670817 0.697744 0.720033 0.736368 0.74593 0.748333 0.743679 0.732508 0.71587 0.695273 0.672756 0.650779 0.632126 0.619519 0.615044 0.500675 0.508765 0.530482 0.56276 0.600866 0.64084 0.679223 0.713308 0.741064 0.761011 0.772243 0.774333 0.767396 0.752031 0.729422 0.701323 0.670185 0.639237 0.612241 0.593764 0.586772 0.44776 0.459561 0.491814 0.537334 0.58944 0.642362 0.692023 0.735299 0.769976 0.794454 0.807765 0.809448 0.799616 0.778897 0.748563 0.710518 0.667603 0.623631 0.584141 0.555612 0.545072 0.366627 0.390364 0.43909 0.505837 0.577346 0.64737 0.711328 0.766022 0.80918 0.839172 0.855003 0.856186 0.842819 0.815515 0.775539 0.724817 0.666229 0.604065 0.54431 0.499932 0.477739 0.250303 0.286787 0.372997 0.469645 0.56722 0.658637 0.740024 0.808394 0.861627 0.898145 0.91696 0.91757 0.900038 0.864923 0.813391 0.747177 0.668917 0.582164 0.493708 0.412792 0.378171 0 0.149042 0.294755 0.433884 0.56332 0.680173 0.781831 0.866025 0.930874 0.974928 0.997204 0.997204 0.974928 0.930874 0.866025 0.781831 0.680173 0.56332 0.433884 0.294755 0.149042 
				</DataArray>
				<DataArray Name="rightHandSide" type="Float32" NumberOfComponents="1" format="ascii" >
					0 0.149042 0.294755 0.433884 0.56332 0.680173 0.781831 0.866025 0.930874 0.974928 0.997204 0.997204 0.974928 0.930874 0.866025 0.781831 0.680173 0.56332 0.433884 0.294755 0.149042 -0.0202422 -0.26378 -0.262574 -0.767903 -0.501816 -1.20379 -0.69647 -1.53272 -0.82924 -1.72546 -0.888328 -1.76489 -0.868484 -1.64749 -0.771472 -1.38371 -0.605911 -0.996984 -0.386512 -0.521668 -0.086401 0.0100101 0.0327506 0.032601 0.0953417 0.0623052 0.149461 0.0864734 0.190301 0.102958 0.214231 0.110294 0.219126 0.107831 0.20455 0.0957855 0.1718 0.0752296 0.123784 0.0479891 0.0647696 0.0181406 0 0 0 0 0 0 0 0 0 0 0 0 0 0 0 0 0 0 0 0 0 0 0 0 0 0 0 0 0 0 0 0 0 0 0 0 0 0 0 0 0 0 0 0 0 0 0 0 0 0 0 0 0 0 0 0 0 0 0 0 0 0 0 0 0 0 0 0 0 0 0 0 0 0 0 0 0 0 0 0 0 0 0 0 0 0 0 0 0 0 0 0 0 0 0 0 0 0 0 0 0 0 0 0 0 0 0 0 0 0 0 0 0 0 0 0 0 0 0 0 0 0 0 0 0 0 0 0 0 0 0 0 0 0 0 0 0 0 0 0 0 0 0 0 0 0 0 0 0 0 0 0 0 0 0 0 0 0 0 0 0 0 0 0 0 0 0 0 0 0 0 0 0 0 0 0 0 0 0 0 0 0 0 0 0 0 0 0 0 0 0 0 0 0 0 0 0 0 0 0 0 0 0 0 0 0 0 0 0 0 0 0 0 0 0 0 0 0 0 0 0 0 0 0 0 0 0 0 0 0 0 0 0 0 0 0 0 0 0 0 0 0 0 0 0 0 0 0 0 0 0 0 0 0 0 0 0 0 0 0 0 0 0 0 0 0 0 0 0 0 0 0 0 0 0 0 0 0 0 0 0 0 0 0 0 0 0 0 0 0 0 0 0 0 0 0 0 0 0 0 0 0 0 0 0 0 0 0 0 0 0 0 0 0 0 0.0100101 0.0327506 0.032601 0.0953417 0.0623052 0.149461 0.0864734 0.190301 0.102958 0.214231 0.110294 0.219126 0.107831 0.20455 0.0957855 0.1718 0.0752296 0.123784 0.0479891 0.0647696 0.0181406 -0.0202422 -0.26378 -0.262574 -0.767903 -0.501816 -1.20379 -0.69647 -1.53272 -0.82924 -1.72546 -0.888328 -1.76489 -0.868484 -1.64749 -0.771472 -1.38371 -0.605911 -0.996984 -0.386512 -0.521668 -0.086401 0 0.149042 0.294755 0.433884 0.56332 0.680173 0.781831 0.866025 0.930874 0.974928 0.997204 0.997204 0.974928 0.930874 0.866025 0.781831 0.680173 0.56332 0.433884 0.294755 0.149042 
				</DataArray>
				<DataArray Name="-rhsNeumannBC" type="Float32" NumberOfComponents="1" format="ascii" >
					0 0 0 0 0 0 0 0 0 0 0 0 0 0 0 0 0 0 0 0 0 0 0 0 0 0 0 0 0 0 0 0 0 0 0 0 0 0 0 0 0 0 0 0 0 0 0 0 0 0 0 0 0 0 0 0 0 0 0 0 0 0 0 0 0 0 0 0 0 0 0 0 0 0 0 0 0 0 0 0 0 0 0 0 0 0 0 0 0 0 0 0 0 0 0 0 0 0 0 0 0 0 0 0 0 0 0 0 0 0 0 0 0 0 0 0 0 0 0 0 0 0 0 0 0 0 0 0 0 0 0 0 0 0 0 0 0 0 0 0 0 0 0 0 0 0 0 0 0 0 0 0 0 0 0 0 0 0 0 0 0 0 0 0 0 0 0 0 0 0 0 0 0 0 0 0 0 0 0 0 0 0 0 0 0 0 0 0 0 0 0 0 0 0 0 0 0 0 0 0 0 0 0 0 0 0 0 0 0 0 0 0 0 0 0 0 0 0 0 0 0 0 0 0 0 0 0 0 0 0 0 0 0 0 0 0 0 0 0 0 0 0 0 0 0 0 0 0 0 0 0 0 0 0 0 0 0 0 0 0 0 0 0 0 0 0 0 0 0 0 0 0 0 0 0 0 0 0 0 0 0 0 0 0 0 0 0 0 0 0 0 0 0 0 0 0 0 0 0 0 0 0 0 0 0 0 0 0 0 0 0 0 0 0 0 0 0 0 0 0 0 0 0 0 0 0 0 0 0 0 0 0 0 0 0 0 0 0 0 0 0 0 0 0 0 0 0 0 0 0 0 0 0 0 0 0 0 0 0 0 0 0 0 0 0 0 0 0 0 0 0 0 0 0 0 0 0 0 0 0 0 0 0 0 0 0 0 0 0 0 0 0 0 0 0 0 0 0 0 0 0 0 0 0 0 0 0 0 0 0 0 0 0 0 0 0 0 0 0 0 0 0 0 0 0 0 0 0 0 0 0 0 0 0 0 0 0 0 0 0 0 
				</DataArray>
				<DataArray Name="partitioning" type="Int32" NumberOfComponents="1" format="ascii" >
					0 0 0 0 0 0 0 0 0 0 0 0 0 0 0 0 0 0 0 0 0 0 0 0 0 0 0 0 0 0 0 0 0 0 0 0 0 0 0 0 0 0 0 0 0 0 0 0 0 0 0 0 0 0 0 0 0 0 0 0 0 0 0 0 0 0 0 0 0 0 0 0 0 0 0 0 0 0 0 0 0 0 0 0 0 0 0 0 0 0 0 0 0 0 0 0 0 0 0 0 0 0 0 0 0 0 0 0 0 0 0 0 0 0 0 0 0 0 0 0 0 0 0 0 0 0 0 0 0 0 0 0 0 0 0 0 0 0 0 0 0 0 0 0 0 0 0 0 0 0 0 0 0 0 0 0 0 0 0 0 0 0 0 0 0 0 0 0 0 0 0 0 0 0 0 0 0 0 0 0 0 0 0 0 0 0 0 0 0 0 0 0 0 0 0 0 0 0 0 0 0 0 0 0 0 0 0 0 0 0 0 0 0 0 0 0 0 0 0 0 0 0 0 0 0 0 0 0 0 0 0 0 0 0 0 0 0 0 0 0 0 0 0 0 0 0 0 0 0 0 0 0 0 0 0 0 0 0 0 0 0 0 0 0 0 0 0 0 0 0 0 0 0 0 0 0 0 0 0 0 0 0 0 0 0 0 0 0 0 0 0 0 0 0 0 0 0 0 0 0 0 0 0 0 0 0 0 0 0 0 0 0 0 0 0 0 0 0 0 0 0 0 0 0 0 0 0 0 0 0 0 0 0 0 0 0 0 0 0 0 0 0 0 0 0 0 0 0 0 0 0 0 0 0 0 0 0 0 0 0 0 0 0 0 0 0 0 0 0 0 0 0 0 0 0 0 0 0 0 0 0 0 0 0 0 0 0 0 0 0 0 0 0 0 0 0 0 0 0 0 0 0 0 0 0 0 0 0 0 0 0 0 0 0 0 0 0 0 0 0 0 0 0 0 0 0 0 0 0 0 0 0 0 0 0 0 0 0 0 0 0 
				</DataArray>
			</PointData>
			<CellData>
			</CellData>
			<Coordinates>
				<DataArray type="Float32" NumberOfComponents="1" format="ascii" >
					0 0.05 0.1 0.15 0.2 0.25 0.3 0.35 0.4 0.45 0.5 0.55 0.6 0.65 0.7 0.75 0.8 0.85 0.9 0.95 1 
				</DataArray>
				<DataArray type="Float32" NumberOfComponents="1" format="ascii" >
					0 0.05 0.1 0.15 0.2 0.25 0.3 0.35 0.4 0.45 0.5 0.55 0.6 0.65 0.7 0.75 0.8 0.85 0.9 0.95 1 
				</DataArray>
				<DataArray type="Float32" NumberOfComponents="1" format="ascii" >
					0 
				</DataArray>
			</Coordinates>
		</Piece>
	</RectilinearGrid>
</VTKFile>
